&FCI NORB=   2,NELEC=   2,MS2= 0,
  ORBSYM=1,1,
  ISYM=0,
 /
 1.8093119978423133E-01   1   2   1   2
