&FCI NORB=   2,NELEC=   2,MS2= 0,
  ORBSYM=1,1,
  ISYM=0,
 /
-1.2563390730032502E+00   1   1   0   0
